# Probe 0 (0.0075 0 0)
# Probe 1 (0.0075 0.00070588 0)
# Probe 2 (0.0075 0.00141176 0)
# Probe 3 (0.0075 0.00211765 0)
# Probe 4 (0.0075 0.00282353 0)
# Probe 5 (0.0075 0.00352941 0)
# Probe 6 (0.0075 0.00423529 0)
# Probe 7 (0.0075 0.00494118 0)
# Probe 8 (0.0075 0.00564706 0)
# Probe 9 (0.0075 0.00635294 0)
# Probe 10 (0.0075 0.00705882 0)
# Probe 11 (0.0075 0.00776471 0)
# Probe 12 (0.0075 0.00847059 0)
# Probe 13 (0.0075 0.00917647 0)
# Probe 14 (0.0075 0.00988235 0)
# Probe 15 (0.0075 0.0105882 0)
# Probe 16 (0.0075 0.0112941 0)
# Probe 17 (0.0075 0.012 0)
# Probe 18 (0.0075 0 0)
# Probe 19 (0.0075 0.00049913 0.00049913)
# Probe 20 (0.0075 0.00099827 0.00099827)
# Probe 21 (0.0075 0.0014974 0.0014974)
# Probe 22 (0.0075 0.00199654 0.00199654)
# Probe 23 (0.0075 0.00249567 0.00249567)
# Probe 24 (0.0075 0.00299481 0.00299481)
# Probe 25 (0.0075 0.00349394 0.00349394)
# Probe 26 (0.0075 0.00399307 0.00399307)
# Probe 27 (0.0075 0.00449221 0.00449221)
# Probe 28 (0.0075 0.00499134 0.00499134)
# Probe 29 (0.0075 0.00549048 0.00549048)
# Probe 30 (0.0075 0.00598961 0.00598961)
# Probe 31 (0.0075 0.00648874 0.00648874)
# Probe 32 (0.0075 0.00698788 0.00698788)
# Probe 33 (0.0075 0.00748701 0.00748701)
# Probe 34 (0.0075 0.00798615 0.00798615)
# Probe 35 (0.0075 0.00848528 0.00848528)
# Probe 36 (0.0075 0 0)
# Probe 37 (0.0075 0 0.00070588)
# Probe 38 (0.0075 0 0.00141176)
# Probe 39 (0.0075 0 0.00211765)
# Probe 40 (0.0075 0 0.00282353)
# Probe 41 (0.0075 0 0.00352941)
# Probe 42 (0.0075 0 0.00423529)
# Probe 43 (0.0075 0 0.00494118)
# Probe 44 (0.0075 0 0.00564706)
# Probe 45 (0.0075 0 0.00635294)
# Probe 46 (0.0075 0 0.00705882)
# Probe 47 (0.0075 0 0.00776471)
# Probe 48 (0.0075 0 0.00847059)
# Probe 49 (0.0075 0 0.00917647)
# Probe 50 (0.0075 0 0.00988235)
# Probe 51 (0.0075 0 0.0105882)
# Probe 52 (0.0075 0 0.0112941)
# Probe 53 (0.0075 0 0.012)
# Probe 54 (0.0075 0 0)
# Probe 55 (0.0075 -0.00049913 0.00049913)
# Probe 56 (0.0075 -0.00099827 0.00099827)
# Probe 57 (0.0075 -0.0014974 0.0014974)
# Probe 58 (0.0075 -0.00199654 0.00199654)
# Probe 59 (0.0075 -0.00249567 0.00249567)
# Probe 60 (0.0075 -0.00299481 0.00299481)
# Probe 61 (0.0075 -0.00349394 0.00349394)
# Probe 62 (0.0075 -0.00399307 0.00399307)
# Probe 63 (0.0075 -0.00449221 0.00449221)
# Probe 64 (0.0075 -0.00499134 0.00499134)
# Probe 65 (0.0075 -0.00549048 0.00549048)
# Probe 66 (0.0075 -0.00598961 0.00598961)
# Probe 67 (0.0075 -0.00648874 0.00648874)
# Probe 68 (0.0075 -0.00698788 0.00698788)
# Probe 69 (0.0075 -0.00748701 0.00748701)
# Probe 70 (0.0075 -0.00798615 0.00798615)
# Probe 71 (0.0075 -0.00848528 0.00848528)
# Probe 72 (0.0075 0 0)
# Probe 73 (0.0075 -0.00070588 0)
# Probe 74 (0.0075 -0.00141176 0)
# Probe 75 (0.0075 -0.00211765 0)
# Probe 76 (0.0075 -0.00282353 0)
# Probe 77 (0.0075 -0.00352941 0)
# Probe 78 (0.0075 -0.00423529 0)
# Probe 79 (0.0075 -0.00494118 0)
# Probe 80 (0.0075 -0.00564706 0)
# Probe 81 (0.0075 -0.00635294 0)
# Probe 82 (0.0075 -0.00705882 0)
# Probe 83 (0.0075 -0.00776471 0)
# Probe 84 (0.0075 -0.00847059 0)
# Probe 85 (0.0075 -0.00917647 0)
# Probe 86 (0.0075 -0.00988235 0)
# Probe 87 (0.0075 -0.0105882 0)
# Probe 88 (0.0075 -0.0112941 0)
# Probe 89 (0.0075 -0.012 0)
# Probe 90 (0.0075 0 0)
# Probe 91 (0.0075 -0.00049913 -0.00049913)
# Probe 92 (0.0075 -0.00099827 -0.00099827)
# Probe 93 (0.0075 -0.0014974 -0.0014974)
# Probe 94 (0.0075 -0.00199654 -0.00199654)
# Probe 95 (0.0075 -0.00249567 -0.00249567)
# Probe 96 (0.0075 -0.00299481 -0.00299481)
# Probe 97 (0.0075 -0.00349394 -0.00349394)
# Probe 98 (0.0075 -0.00399307 -0.00399307)
# Probe 99 (0.0075 -0.00449221 -0.00449221)
# Probe 100 (0.0075 -0.00499134 -0.00499134)
# Probe 101 (0.0075 -0.00549048 -0.00549048)
# Probe 102 (0.0075 -0.00598961 -0.00598961)
# Probe 103 (0.0075 -0.00648874 -0.00648874)
# Probe 104 (0.0075 -0.00698788 -0.00698788)
# Probe 105 (0.0075 -0.00748701 -0.00748701)
# Probe 106 (0.0075 -0.00798615 -0.00798615)
# Probe 107 (0.0075 -0.00848528 -0.00848528)
# Probe 108 (0.0075 0 0)
# Probe 109 (0.0075 0 -0.00070588)
# Probe 110 (0.0075 0 -0.00141176)
# Probe 111 (0.0075 0 -0.00211765)
# Probe 112 (0.0075 0 -0.00282353)
# Probe 113 (0.0075 0 -0.00352941)
# Probe 114 (0.0075 0 -0.00423529)
# Probe 115 (0.0075 0 -0.00494118)
# Probe 116 (0.0075 0 -0.00564706)
# Probe 117 (0.0075 0 -0.00635294)
# Probe 118 (0.0075 0 -0.00705882)
# Probe 119 (0.0075 0 -0.00776471)
# Probe 120 (0.0075 0 -0.00847059)
# Probe 121 (0.0075 0 -0.00917647)
# Probe 122 (0.0075 0 -0.00988235)
# Probe 123 (0.0075 0 -0.0105882)
# Probe 124 (0.0075 0 -0.0112941)
# Probe 125 (0.0075 0 -0.012)
# Probe 126 (0.0075 0 0)
# Probe 127 (0.0075 0.00049913 -0.00049913)
# Probe 128 (0.0075 0.00099827 -0.00099827)
# Probe 129 (0.0075 0.0014974 -0.0014974)
# Probe 130 (0.0075 0.00199654 -0.00199654)
# Probe 131 (0.0075 0.00249567 -0.00249567)
# Probe 132 (0.0075 0.00299481 -0.00299481)
# Probe 133 (0.0075 0.00349394 -0.00349394)
# Probe 134 (0.0075 0.00399307 -0.00399307)
# Probe 135 (0.0075 0.00449221 -0.00449221)
# Probe 136 (0.0075 0.00499134 -0.00499134)
# Probe 137 (0.0075 0.00549048 -0.00549048)
# Probe 138 (0.0075 0.00598961 -0.00598961)
# Probe 139 (0.0075 0.00648874 -0.00648874)
# Probe 140 (0.0075 0.00698788 -0.00698788)
# Probe 141 (0.0075 0.00748701 -0.00748701)
# Probe 142 (0.0075 0.00798615 -0.00798615)
# Probe 143 (0.0075 0.00848528 -0.00848528)
# Probe 144 (0.015 0 0)
# Probe 145 (0.015 0.00070588 0)
# Probe 146 (0.015 0.00141176 0)
# Probe 147 (0.015 0.00211765 0)
# Probe 148 (0.015 0.00282353 0)
# Probe 149 (0.015 0.00352941 0)
# Probe 150 (0.015 0.00423529 0)
# Probe 151 (0.015 0.00494118 0)
# Probe 152 (0.015 0.00564706 0)
# Probe 153 (0.015 0.00635294 0)
# Probe 154 (0.015 0.00705882 0)
# Probe 155 (0.015 0.00776471 0)
# Probe 156 (0.015 0.00847059 0)
# Probe 157 (0.015 0.00917647 0)
# Probe 158 (0.015 0.00988235 0)
# Probe 159 (0.015 0.0105882 0)
# Probe 160 (0.015 0.0112941 0)
# Probe 161 (0.015 0.012 0)
# Probe 162 (0.015 0 0)
# Probe 163 (0.015 0.00049913 0.00049913)
# Probe 164 (0.015 0.00099827 0.00099827)
# Probe 165 (0.015 0.0014974 0.0014974)
# Probe 166 (0.015 0.00199654 0.00199654)
# Probe 167 (0.015 0.00249567 0.00249567)
# Probe 168 (0.015 0.00299481 0.00299481)
# Probe 169 (0.015 0.00349394 0.00349394)
# Probe 170 (0.015 0.00399307 0.00399307)
# Probe 171 (0.015 0.00449221 0.00449221)
# Probe 172 (0.015 0.00499134 0.00499134)
# Probe 173 (0.015 0.00549048 0.00549048)
# Probe 174 (0.015 0.00598961 0.00598961)
# Probe 175 (0.015 0.00648874 0.00648874)
# Probe 176 (0.015 0.00698788 0.00698788)
# Probe 177 (0.015 0.00748701 0.00748701)
# Probe 178 (0.015 0.00798615 0.00798615)
# Probe 179 (0.015 0.00848528 0.00848528)
# Probe 180 (0.015 0 0)
# Probe 181 (0.015 0 0.00070588)
# Probe 182 (0.015 0 0.00141176)
# Probe 183 (0.015 0 0.00211765)
# Probe 184 (0.015 0 0.00282353)
# Probe 185 (0.015 0 0.00352941)
# Probe 186 (0.015 0 0.00423529)
# Probe 187 (0.015 0 0.00494118)
# Probe 188 (0.015 0 0.00564706)
# Probe 189 (0.015 0 0.00635294)
# Probe 190 (0.015 0 0.00705882)
# Probe 191 (0.015 0 0.00776471)
# Probe 192 (0.015 0 0.00847059)
# Probe 193 (0.015 0 0.00917647)
# Probe 194 (0.015 0 0.00988235)
# Probe 195 (0.015 0 0.0105882)
# Probe 196 (0.015 0 0.0112941)
# Probe 197 (0.015 0 0.012)
# Probe 198 (0.015 0 0)
# Probe 199 (0.015 -0.00049913 0.00049913)
# Probe 200 (0.015 -0.00099827 0.00099827)
# Probe 201 (0.015 -0.0014974 0.0014974)
# Probe 202 (0.015 -0.00199654 0.00199654)
# Probe 203 (0.015 -0.00249567 0.00249567)
# Probe 204 (0.015 -0.00299481 0.00299481)
# Probe 205 (0.015 -0.00349394 0.00349394)
# Probe 206 (0.015 -0.00399307 0.00399307)
# Probe 207 (0.015 -0.00449221 0.00449221)
# Probe 208 (0.015 -0.00499134 0.00499134)
# Probe 209 (0.015 -0.00549048 0.00549048)
# Probe 210 (0.015 -0.00598961 0.00598961)
# Probe 211 (0.015 -0.00648874 0.00648874)
# Probe 212 (0.015 -0.00698788 0.00698788)
# Probe 213 (0.015 -0.00748701 0.00748701)
# Probe 214 (0.015 -0.00798615 0.00798615)
# Probe 215 (0.015 -0.00848528 0.00848528)
# Probe 216 (0.015 0 0)
# Probe 217 (0.015 -0.00070588 0)
# Probe 218 (0.015 -0.00141176 0)
# Probe 219 (0.015 -0.00211765 0)
# Probe 220 (0.015 -0.00282353 0)
# Probe 221 (0.015 -0.00352941 0)
# Probe 222 (0.015 -0.00423529 0)
# Probe 223 (0.015 -0.00494118 0)
# Probe 224 (0.015 -0.00564706 0)
# Probe 225 (0.015 -0.00635294 0)
# Probe 226 (0.015 -0.00705882 0)
# Probe 227 (0.015 -0.00776471 0)
# Probe 228 (0.015 -0.00847059 0)
# Probe 229 (0.015 -0.00917647 0)
# Probe 230 (0.015 -0.00988235 0)
# Probe 231 (0.015 -0.0105882 0)
# Probe 232 (0.015 -0.0112941 0)
# Probe 233 (0.015 -0.012 0)
# Probe 234 (0.015 0 0)
# Probe 235 (0.015 -0.00049913 -0.00049913)
# Probe 236 (0.015 -0.00099827 -0.00099827)
# Probe 237 (0.015 -0.0014974 -0.0014974)
# Probe 238 (0.015 -0.00199654 -0.00199654)
# Probe 239 (0.015 -0.00249567 -0.00249567)
# Probe 240 (0.015 -0.00299481 -0.00299481)
# Probe 241 (0.015 -0.00349394 -0.00349394)
# Probe 242 (0.015 -0.00399307 -0.00399307)
# Probe 243 (0.015 -0.00449221 -0.00449221)
# Probe 244 (0.015 -0.00499134 -0.00499134)
# Probe 245 (0.015 -0.00549048 -0.00549048)
# Probe 246 (0.015 -0.00598961 -0.00598961)
# Probe 247 (0.015 -0.00648874 -0.00648874)
# Probe 248 (0.015 -0.00698788 -0.00698788)
# Probe 249 (0.015 -0.00748701 -0.00748701)
# Probe 250 (0.015 -0.00798615 -0.00798615)
# Probe 251 (0.015 -0.00848528 -0.00848528)
# Probe 252 (0.015 0 0)
# Probe 253 (0.015 0 -0.00070588)
# Probe 254 (0.015 0 -0.00141176)
# Probe 255 (0.015 0 -0.00211765)
# Probe 256 (0.015 0 -0.00282353)
# Probe 257 (0.015 0 -0.00352941)
# Probe 258 (0.015 0 -0.00423529)
# Probe 259 (0.015 0 -0.00494118)
# Probe 260 (0.015 0 -0.00564706)
# Probe 261 (0.015 0 -0.00635294)
# Probe 262 (0.015 0 -0.00705882)
# Probe 263 (0.015 0 -0.00776471)
# Probe 264 (0.015 0 -0.00847059)
# Probe 265 (0.015 0 -0.00917647)
# Probe 266 (0.015 0 -0.00988235)
# Probe 267 (0.015 0 -0.0105882)
# Probe 268 (0.015 0 -0.0112941)
# Probe 269 (0.015 0 -0.012)
# Probe 270 (0.015 0 0)
# Probe 271 (0.015 0.00049913 -0.00049913)
# Probe 272 (0.015 0.00099827 -0.00099827)
# Probe 273 (0.015 0.0014974 -0.0014974)
# Probe 274 (0.015 0.00199654 -0.00199654)
# Probe 275 (0.015 0.00249567 -0.00249567)
# Probe 276 (0.015 0.00299481 -0.00299481)
# Probe 277 (0.015 0.00349394 -0.00349394)
# Probe 278 (0.015 0.00399307 -0.00399307)
# Probe 279 (0.015 0.00449221 -0.00449221)
# Probe 280 (0.015 0.00499134 -0.00499134)
# Probe 281 (0.015 0.00549048 -0.00549048)
# Probe 282 (0.015 0.00598961 -0.00598961)
# Probe 283 (0.015 0.00648874 -0.00648874)
# Probe 284 (0.015 0.00698788 -0.00698788)
# Probe 285 (0.015 0.00748701 -0.00748701)
# Probe 286 (0.015 0.00798615 -0.00798615)
# Probe 287 (0.015 0.00848528 -0.00848528)
# Probe 288 (0.0225 0 0)
# Probe 289 (0.0225 0.00070588 0)
# Probe 290 (0.0225 0.00141176 0)
# Probe 291 (0.0225 0.00211765 0)
# Probe 292 (0.0225 0.00282353 0)
# Probe 293 (0.0225 0.00352941 0)
# Probe 294 (0.0225 0.00423529 0)
# Probe 295 (0.0225 0.00494118 0)
# Probe 296 (0.0225 0.00564706 0)
# Probe 297 (0.0225 0.00635294 0)
# Probe 298 (0.0225 0.00705882 0)
# Probe 299 (0.0225 0.00776471 0)
# Probe 300 (0.0225 0.00847059 0)
# Probe 301 (0.0225 0.00917647 0)
# Probe 302 (0.0225 0.00988235 0)
# Probe 303 (0.0225 0.0105882 0)
# Probe 304 (0.0225 0.0112941 0)
# Probe 305 (0.0225 0.012 0)
# Probe 306 (0.0225 0 0)
# Probe 307 (0.0225 0.00049913 0.00049913)
# Probe 308 (0.0225 0.00099827 0.00099827)
# Probe 309 (0.0225 0.0014974 0.0014974)
# Probe 310 (0.0225 0.00199654 0.00199654)
# Probe 311 (0.0225 0.00249567 0.00249567)
# Probe 312 (0.0225 0.00299481 0.00299481)
# Probe 313 (0.0225 0.00349394 0.00349394)
# Probe 314 (0.0225 0.00399307 0.00399307)
# Probe 315 (0.0225 0.00449221 0.00449221)
# Probe 316 (0.0225 0.00499134 0.00499134)
# Probe 317 (0.0225 0.00549048 0.00549048)
# Probe 318 (0.0225 0.00598961 0.00598961)
# Probe 319 (0.0225 0.00648874 0.00648874)
# Probe 320 (0.0225 0.00698788 0.00698788)
# Probe 321 (0.0225 0.00748701 0.00748701)
# Probe 322 (0.0225 0.00798615 0.00798615)
# Probe 323 (0.0225 0.00848528 0.00848528)
# Probe 324 (0.0225 0 0)
# Probe 325 (0.0225 0 0.00070588)
# Probe 326 (0.0225 0 0.00141176)
# Probe 327 (0.0225 0 0.00211765)
# Probe 328 (0.0225 0 0.00282353)
# Probe 329 (0.0225 0 0.00352941)
# Probe 330 (0.0225 0 0.00423529)
# Probe 331 (0.0225 0 0.00494118)
# Probe 332 (0.0225 0 0.00564706)
# Probe 333 (0.0225 0 0.00635294)
# Probe 334 (0.0225 0 0.00705882)
# Probe 335 (0.0225 0 0.00776471)
# Probe 336 (0.0225 0 0.00847059)
# Probe 337 (0.0225 0 0.00917647)
# Probe 338 (0.0225 0 0.00988235)
# Probe 339 (0.0225 0 0.0105882)
# Probe 340 (0.0225 0 0.0112941)
# Probe 341 (0.0225 0 0.012)
# Probe 342 (0.0225 0 0)
# Probe 343 (0.0225 -0.00049913 0.00049913)
# Probe 344 (0.0225 -0.00099827 0.00099827)
# Probe 345 (0.0225 -0.0014974 0.0014974)
# Probe 346 (0.0225 -0.00199654 0.00199654)
# Probe 347 (0.0225 -0.00249567 0.00249567)
# Probe 348 (0.0225 -0.00299481 0.00299481)
# Probe 349 (0.0225 -0.00349394 0.00349394)
# Probe 350 (0.0225 -0.00399307 0.00399307)
# Probe 351 (0.0225 -0.00449221 0.00449221)
# Probe 352 (0.0225 -0.00499134 0.00499134)
# Probe 353 (0.0225 -0.00549048 0.00549048)
# Probe 354 (0.0225 -0.00598961 0.00598961)
# Probe 355 (0.0225 -0.00648874 0.00648874)
# Probe 356 (0.0225 -0.00698788 0.00698788)
# Probe 357 (0.0225 -0.00748701 0.00748701)
# Probe 358 (0.0225 -0.00798615 0.00798615)
# Probe 359 (0.0225 -0.00848528 0.00848528)
# Probe 360 (0.0225 0 0)
# Probe 361 (0.0225 -0.00070588 0)
# Probe 362 (0.0225 -0.00141176 0)
# Probe 363 (0.0225 -0.00211765 0)
# Probe 364 (0.0225 -0.00282353 0)
# Probe 365 (0.0225 -0.00352941 0)
# Probe 366 (0.0225 -0.00423529 0)
# Probe 367 (0.0225 -0.00494118 0)
# Probe 368 (0.0225 -0.00564706 0)
# Probe 369 (0.0225 -0.00635294 0)
# Probe 370 (0.0225 -0.00705882 0)
# Probe 371 (0.0225 -0.00776471 0)
# Probe 372 (0.0225 -0.00847059 0)
# Probe 373 (0.0225 -0.00917647 0)
# Probe 374 (0.0225 -0.00988235 0)
# Probe 375 (0.0225 -0.0105882 0)
# Probe 376 (0.0225 -0.0112941 0)
# Probe 377 (0.0225 -0.012 0)
# Probe 378 (0.0225 0 0)
# Probe 379 (0.0225 -0.00049913 -0.00049913)
# Probe 380 (0.0225 -0.00099827 -0.00099827)
# Probe 381 (0.0225 -0.0014974 -0.0014974)
# Probe 382 (0.0225 -0.00199654 -0.00199654)
# Probe 383 (0.0225 -0.00249567 -0.00249567)
# Probe 384 (0.0225 -0.00299481 -0.00299481)
# Probe 385 (0.0225 -0.00349394 -0.00349394)
# Probe 386 (0.0225 -0.00399307 -0.00399307)
# Probe 387 (0.0225 -0.00449221 -0.00449221)
# Probe 388 (0.0225 -0.00499134 -0.00499134)
# Probe 389 (0.0225 -0.00549048 -0.00549048)
# Probe 390 (0.0225 -0.00598961 -0.00598961)
# Probe 391 (0.0225 -0.00648874 -0.00648874)
# Probe 392 (0.0225 -0.00698788 -0.00698788)
# Probe 393 (0.0225 -0.00748701 -0.00748701)
# Probe 394 (0.0225 -0.00798615 -0.00798615)
# Probe 395 (0.0225 -0.00848528 -0.00848528)
# Probe 396 (0.0225 0 0)
# Probe 397 (0.0225 0 -0.00070588)
# Probe 398 (0.0225 0 -0.00141176)
# Probe 399 (0.0225 0 -0.00211765)
# Probe 400 (0.0225 0 -0.00282353)
# Probe 401 (0.0225 0 -0.00352941)
# Probe 402 (0.0225 0 -0.00423529)
# Probe 403 (0.0225 0 -0.00494118)
# Probe 404 (0.0225 0 -0.00564706)
# Probe 405 (0.0225 0 -0.00635294)
# Probe 406 (0.0225 0 -0.00705882)
# Probe 407 (0.0225 0 -0.00776471)
# Probe 408 (0.0225 0 -0.00847059)
# Probe 409 (0.0225 0 -0.00917647)
# Probe 410 (0.0225 0 -0.00988235)
# Probe 411 (0.0225 0 -0.0105882)
# Probe 412 (0.0225 0 -0.0112941)
# Probe 413 (0.0225 0 -0.012)
# Probe 414 (0.0225 0 0)
# Probe 415 (0.0225 0.00049913 -0.00049913)
# Probe 416 (0.0225 0.00099827 -0.00099827)
# Probe 417 (0.0225 0.0014974 -0.0014974)
# Probe 418 (0.0225 0.00199654 -0.00199654)
# Probe 419 (0.0225 0.00249567 -0.00249567)
# Probe 420 (0.0225 0.00299481 -0.00299481)
# Probe 421 (0.0225 0.00349394 -0.00349394)
# Probe 422 (0.0225 0.00399307 -0.00399307)
# Probe 423 (0.0225 0.00449221 -0.00449221)
# Probe 424 (0.0225 0.00499134 -0.00499134)
# Probe 425 (0.0225 0.00549048 -0.00549048)
# Probe 426 (0.0225 0.00598961 -0.00598961)
# Probe 427 (0.0225 0.00648874 -0.00648874)
# Probe 428 (0.0225 0.00698788 -0.00698788)
# Probe 429 (0.0225 0.00748701 -0.00748701)
# Probe 430 (0.0225 0.00798615 -0.00798615)
# Probe 431 (0.0225 0.00848528 -0.00848528)
# Probe 432 (0.03 0 0)
# Probe 433 (0.03 0.00070588 0)
# Probe 434 (0.03 0.00141176 0)
# Probe 435 (0.03 0.00211765 0)
# Probe 436 (0.03 0.00282353 0)
# Probe 437 (0.03 0.00352941 0)
# Probe 438 (0.03 0.00423529 0)
# Probe 439 (0.03 0.00494118 0)
# Probe 440 (0.03 0.00564706 0)
# Probe 441 (0.03 0.00635294 0)
# Probe 442 (0.03 0.00705882 0)
# Probe 443 (0.03 0.00776471 0)
# Probe 444 (0.03 0.00847059 0)
# Probe 445 (0.03 0.00917647 0)
# Probe 446 (0.03 0.00988235 0)
# Probe 447 (0.03 0.0105882 0)
# Probe 448 (0.03 0.0112941 0)
# Probe 449 (0.03 0.012 0)
# Probe 450 (0.03 0 0)
# Probe 451 (0.03 0.00049913 0.00049913)
# Probe 452 (0.03 0.00099827 0.00099827)
# Probe 453 (0.03 0.0014974 0.0014974)
# Probe 454 (0.03 0.00199654 0.00199654)
# Probe 455 (0.03 0.00249567 0.00249567)
# Probe 456 (0.03 0.00299481 0.00299481)
# Probe 457 (0.03 0.00349394 0.00349394)
# Probe 458 (0.03 0.00399307 0.00399307)
# Probe 459 (0.03 0.00449221 0.00449221)
# Probe 460 (0.03 0.00499134 0.00499134)
# Probe 461 (0.03 0.00549048 0.00549048)
# Probe 462 (0.03 0.00598961 0.00598961)
# Probe 463 (0.03 0.00648874 0.00648874)
# Probe 464 (0.03 0.00698788 0.00698788)
# Probe 465 (0.03 0.00748701 0.00748701)
# Probe 466 (0.03 0.00798615 0.00798615)
# Probe 467 (0.03 0.00848528 0.00848528)
# Probe 468 (0.03 0 0)
# Probe 469 (0.03 0 0.00070588)
# Probe 470 (0.03 0 0.00141176)
# Probe 471 (0.03 0 0.00211765)
# Probe 472 (0.03 0 0.00282353)
# Probe 473 (0.03 0 0.00352941)
# Probe 474 (0.03 0 0.00423529)
# Probe 475 (0.03 0 0.00494118)
# Probe 476 (0.03 0 0.00564706)
# Probe 477 (0.03 0 0.00635294)
# Probe 478 (0.03 0 0.00705882)
# Probe 479 (0.03 0 0.00776471)
# Probe 480 (0.03 0 0.00847059)
# Probe 481 (0.03 0 0.00917647)
# Probe 482 (0.03 0 0.00988235)
# Probe 483 (0.03 0 0.0105882)
# Probe 484 (0.03 0 0.0112941)
# Probe 485 (0.03 0 0.012)
# Probe 486 (0.03 0 0)
# Probe 487 (0.03 -0.00049913 0.00049913)
# Probe 488 (0.03 -0.00099827 0.00099827)
# Probe 489 (0.03 -0.0014974 0.0014974)
# Probe 490 (0.03 -0.00199654 0.00199654)
# Probe 491 (0.03 -0.00249567 0.00249567)
# Probe 492 (0.03 -0.00299481 0.00299481)
# Probe 493 (0.03 -0.00349394 0.00349394)
# Probe 494 (0.03 -0.00399307 0.00399307)
# Probe 495 (0.03 -0.00449221 0.00449221)
# Probe 496 (0.03 -0.00499134 0.00499134)
# Probe 497 (0.03 -0.00549048 0.00549048)
# Probe 498 (0.03 -0.00598961 0.00598961)
# Probe 499 (0.03 -0.00648874 0.00648874)
# Probe 500 (0.03 -0.00698788 0.00698788)
# Probe 501 (0.03 -0.00748701 0.00748701)
# Probe 502 (0.03 -0.00798615 0.00798615)
# Probe 503 (0.03 -0.00848528 0.00848528)
# Probe 504 (0.03 0 0)
# Probe 505 (0.03 -0.00070588 0)
# Probe 506 (0.03 -0.00141176 0)
# Probe 507 (0.03 -0.00211765 0)
# Probe 508 (0.03 -0.00282353 0)
# Probe 509 (0.03 -0.00352941 0)
# Probe 510 (0.03 -0.00423529 0)
# Probe 511 (0.03 -0.00494118 0)
# Probe 512 (0.03 -0.00564706 0)
# Probe 513 (0.03 -0.00635294 0)
# Probe 514 (0.03 -0.00705882 0)
# Probe 515 (0.03 -0.00776471 0)
# Probe 516 (0.03 -0.00847059 0)
# Probe 517 (0.03 -0.00917647 0)
# Probe 518 (0.03 -0.00988235 0)
# Probe 519 (0.03 -0.0105882 0)
# Probe 520 (0.03 -0.0112941 0)
# Probe 521 (0.03 -0.012 0)
# Probe 522 (0.03 0 0)
# Probe 523 (0.03 -0.00049913 -0.00049913)
# Probe 524 (0.03 -0.00099827 -0.00099827)
# Probe 525 (0.03 -0.0014974 -0.0014974)
# Probe 526 (0.03 -0.00199654 -0.00199654)
# Probe 527 (0.03 -0.00249567 -0.00249567)
# Probe 528 (0.03 -0.00299481 -0.00299481)
# Probe 529 (0.03 -0.00349394 -0.00349394)
# Probe 530 (0.03 -0.00399307 -0.00399307)
# Probe 531 (0.03 -0.00449221 -0.00449221)
# Probe 532 (0.03 -0.00499134 -0.00499134)
# Probe 533 (0.03 -0.00549048 -0.00549048)
# Probe 534 (0.03 -0.00598961 -0.00598961)
# Probe 535 (0.03 -0.00648874 -0.00648874)
# Probe 536 (0.03 -0.00698788 -0.00698788)
# Probe 537 (0.03 -0.00748701 -0.00748701)
# Probe 538 (0.03 -0.00798615 -0.00798615)
# Probe 539 (0.03 -0.00848528 -0.00848528)
# Probe 540 (0.03 0 0)
# Probe 541 (0.03 0 -0.00070588)
# Probe 542 (0.03 0 -0.00141176)
# Probe 543 (0.03 0 -0.00211765)
# Probe 544 (0.03 0 -0.00282353)
# Probe 545 (0.03 0 -0.00352941)
# Probe 546 (0.03 0 -0.00423529)
# Probe 547 (0.03 0 -0.00494118)
# Probe 548 (0.03 0 -0.00564706)
# Probe 549 (0.03 0 -0.00635294)
# Probe 550 (0.03 0 -0.00705882)
# Probe 551 (0.03 0 -0.00776471)
# Probe 552 (0.03 0 -0.00847059)
# Probe 553 (0.03 0 -0.00917647)
# Probe 554 (0.03 0 -0.00988235)
# Probe 555 (0.03 0 -0.0105882)
# Probe 556 (0.03 0 -0.0112941)
# Probe 557 (0.03 0 -0.012)
# Probe 558 (0.03 0 0)
# Probe 559 (0.03 0.00049913 -0.00049913)
# Probe 560 (0.03 0.00099827 -0.00099827)
# Probe 561 (0.03 0.0014974 -0.0014974)
# Probe 562 (0.03 0.00199654 -0.00199654)
# Probe 563 (0.03 0.00249567 -0.00249567)
# Probe 564 (0.03 0.00299481 -0.00299481)
# Probe 565 (0.03 0.00349394 -0.00349394)
# Probe 566 (0.03 0.00399307 -0.00399307)
# Probe 567 (0.03 0.00449221 -0.00449221)
# Probe 568 (0.03 0.00499134 -0.00499134)
# Probe 569 (0.03 0.00549048 -0.00549048)
# Probe 570 (0.03 0.00598961 -0.00598961)
# Probe 571 (0.03 0.00648874 -0.00648874)
# Probe 572 (0.03 0.00698788 -0.00698788)
# Probe 573 (0.03 0.00748701 -0.00748701)
# Probe 574 (0.03 0.00798615 -0.00798615)
# Probe 575 (0.03 0.00848528 -0.00848528)
# Probe 576 (0.0375 0 0)
# Probe 577 (0.0375 0.00070588 0)
# Probe 578 (0.0375 0.00141176 0)
# Probe 579 (0.0375 0.00211765 0)
# Probe 580 (0.0375 0.00282353 0)
# Probe 581 (0.0375 0.00352941 0)
# Probe 582 (0.0375 0.00423529 0)
# Probe 583 (0.0375 0.00494118 0)
# Probe 584 (0.0375 0.00564706 0)
# Probe 585 (0.0375 0.00635294 0)
# Probe 586 (0.0375 0.00705882 0)
# Probe 587 (0.0375 0.00776471 0)
# Probe 588 (0.0375 0.00847059 0)
# Probe 589 (0.0375 0.00917647 0)
# Probe 590 (0.0375 0.00988235 0)
# Probe 591 (0.0375 0.0105882 0)
# Probe 592 (0.0375 0.0112941 0)
# Probe 593 (0.0375 0.012 0)
# Probe 594 (0.0375 0 0)
# Probe 595 (0.0375 0.00049913 0.00049913)
# Probe 596 (0.0375 0.00099827 0.00099827)
# Probe 597 (0.0375 0.0014974 0.0014974)
# Probe 598 (0.0375 0.00199654 0.00199654)
# Probe 599 (0.0375 0.00249567 0.00249567)
# Probe 600 (0.0375 0.00299481 0.00299481)
# Probe 601 (0.0375 0.00349394 0.00349394)
# Probe 602 (0.0375 0.00399307 0.00399307)
# Probe 603 (0.0375 0.00449221 0.00449221)
# Probe 604 (0.0375 0.00499134 0.00499134)
# Probe 605 (0.0375 0.00549048 0.00549048)
# Probe 606 (0.0375 0.00598961 0.00598961)
# Probe 607 (0.0375 0.00648874 0.00648874)
# Probe 608 (0.0375 0.00698788 0.00698788)
# Probe 609 (0.0375 0.00748701 0.00748701)
# Probe 610 (0.0375 0.00798615 0.00798615)
# Probe 611 (0.0375 0.00848528 0.00848528)
# Probe 612 (0.0375 0 0)
# Probe 613 (0.0375 0 0.00070588)
# Probe 614 (0.0375 0 0.00141176)
# Probe 615 (0.0375 0 0.00211765)
# Probe 616 (0.0375 0 0.00282353)
# Probe 617 (0.0375 0 0.00352941)
# Probe 618 (0.0375 0 0.00423529)
# Probe 619 (0.0375 0 0.00494118)
# Probe 620 (0.0375 0 0.00564706)
# Probe 621 (0.0375 0 0.00635294)
# Probe 622 (0.0375 0 0.00705882)
# Probe 623 (0.0375 0 0.00776471)
# Probe 624 (0.0375 0 0.00847059)
# Probe 625 (0.0375 0 0.00917647)
# Probe 626 (0.0375 0 0.00988235)
# Probe 627 (0.0375 0 0.0105882)
# Probe 628 (0.0375 0 0.0112941)
# Probe 629 (0.0375 0 0.012)
# Probe 630 (0.0375 0 0)
# Probe 631 (0.0375 -0.00049913 0.00049913)
# Probe 632 (0.0375 -0.00099827 0.00099827)
# Probe 633 (0.0375 -0.0014974 0.0014974)
# Probe 634 (0.0375 -0.00199654 0.00199654)
# Probe 635 (0.0375 -0.00249567 0.00249567)
# Probe 636 (0.0375 -0.00299481 0.00299481)
# Probe 637 (0.0375 -0.00349394 0.00349394)
# Probe 638 (0.0375 -0.00399307 0.00399307)
# Probe 639 (0.0375 -0.00449221 0.00449221)
# Probe 640 (0.0375 -0.00499134 0.00499134)
# Probe 641 (0.0375 -0.00549048 0.00549048)
# Probe 642 (0.0375 -0.00598961 0.00598961)
# Probe 643 (0.0375 -0.00648874 0.00648874)
# Probe 644 (0.0375 -0.00698788 0.00698788)
# Probe 645 (0.0375 -0.00748701 0.00748701)
# Probe 646 (0.0375 -0.00798615 0.00798615)
# Probe 647 (0.0375 -0.00848528 0.00848528)
# Probe 648 (0.0375 0 0)
# Probe 649 (0.0375 -0.00070588 0)
# Probe 650 (0.0375 -0.00141176 0)
# Probe 651 (0.0375 -0.00211765 0)
# Probe 652 (0.0375 -0.00282353 0)
# Probe 653 (0.0375 -0.00352941 0)
# Probe 654 (0.0375 -0.00423529 0)
# Probe 655 (0.0375 -0.00494118 0)
# Probe 656 (0.0375 -0.00564706 0)
# Probe 657 (0.0375 -0.00635294 0)
# Probe 658 (0.0375 -0.00705882 0)
# Probe 659 (0.0375 -0.00776471 0)
# Probe 660 (0.0375 -0.00847059 0)
# Probe 661 (0.0375 -0.00917647 0)
# Probe 662 (0.0375 -0.00988235 0)
# Probe 663 (0.0375 -0.0105882 0)
# Probe 664 (0.0375 -0.0112941 0)
# Probe 665 (0.0375 -0.012 0)
# Probe 666 (0.0375 0 0)
# Probe 667 (0.0375 -0.00049913 -0.00049913)
# Probe 668 (0.0375 -0.00099827 -0.00099827)
# Probe 669 (0.0375 -0.0014974 -0.0014974)
# Probe 670 (0.0375 -0.00199654 -0.00199654)
# Probe 671 (0.0375 -0.00249567 -0.00249567)
# Probe 672 (0.0375 -0.00299481 -0.00299481)
# Probe 673 (0.0375 -0.00349394 -0.00349394)
# Probe 674 (0.0375 -0.00399307 -0.00399307)
# Probe 675 (0.0375 -0.00449221 -0.00449221)
# Probe 676 (0.0375 -0.00499134 -0.00499134)
# Probe 677 (0.0375 -0.00549048 -0.00549048)
# Probe 678 (0.0375 -0.00598961 -0.00598961)
# Probe 679 (0.0375 -0.00648874 -0.00648874)
# Probe 680 (0.0375 -0.00698788 -0.00698788)
# Probe 681 (0.0375 -0.00748701 -0.00748701)
# Probe 682 (0.0375 -0.00798615 -0.00798615)
# Probe 683 (0.0375 -0.00848528 -0.00848528)
# Probe 684 (0.0375 0 0)
# Probe 685 (0.0375 0 -0.00070588)
# Probe 686 (0.0375 0 -0.00141176)
# Probe 687 (0.0375 0 -0.00211765)
# Probe 688 (0.0375 0 -0.00282353)
# Probe 689 (0.0375 0 -0.00352941)
# Probe 690 (0.0375 0 -0.00423529)
# Probe 691 (0.0375 0 -0.00494118)
# Probe 692 (0.0375 0 -0.00564706)
# Probe 693 (0.0375 0 -0.00635294)
# Probe 694 (0.0375 0 -0.00705882)
# Probe 695 (0.0375 0 -0.00776471)
# Probe 696 (0.0375 0 -0.00847059)
# Probe 697 (0.0375 0 -0.00917647)
# Probe 698 (0.0375 0 -0.00988235)
# Probe 699 (0.0375 0 -0.0105882)
# Probe 700 (0.0375 0 -0.0112941)
# Probe 701 (0.0375 0 -0.012)
# Probe 702 (0.0375 0 0)
# Probe 703 (0.0375 0.00049913 -0.00049913)
# Probe 704 (0.0375 0.00099827 -0.00099827)
# Probe 705 (0.0375 0.0014974 -0.0014974)
# Probe 706 (0.0375 0.00199654 -0.00199654)
# Probe 707 (0.0375 0.00249567 -0.00249567)
# Probe 708 (0.0375 0.00299481 -0.00299481)
# Probe 709 (0.0375 0.00349394 -0.00349394)
# Probe 710 (0.0375 0.00399307 -0.00399307)
# Probe 711 (0.0375 0.00449221 -0.00449221)
# Probe 712 (0.0375 0.00499134 -0.00499134)
# Probe 713 (0.0375 0.00549048 -0.00549048)
# Probe 714 (0.0375 0.00598961 -0.00598961)
# Probe 715 (0.0375 0.00648874 -0.00648874)
# Probe 716 (0.0375 0.00698788 -0.00698788)
# Probe 717 (0.0375 0.00748701 -0.00748701)
# Probe 718 (0.0375 0.00798615 -0.00798615)
# Probe 719 (0.0375 0.00848528 -0.00848528)
# Probe 720 (0.045 0 0)
# Probe 721 (0.045 0.00070588 0)
# Probe 722 (0.045 0.00141176 0)
# Probe 723 (0.045 0.00211765 0)
# Probe 724 (0.045 0.00282353 0)
# Probe 725 (0.045 0.00352941 0)
# Probe 726 (0.045 0.00423529 0)
# Probe 727 (0.045 0.00494118 0)
# Probe 728 (0.045 0.00564706 0)
# Probe 729 (0.045 0.00635294 0)
# Probe 730 (0.045 0.00705882 0)
# Probe 731 (0.045 0.00776471 0)
# Probe 732 (0.045 0.00847059 0)
# Probe 733 (0.045 0.00917647 0)
# Probe 734 (0.045 0.00988235 0)
# Probe 735 (0.045 0.0105882 0)
# Probe 736 (0.045 0.0112941 0)
# Probe 737 (0.045 0.012 0)
# Probe 738 (0.045 0 0)
# Probe 739 (0.045 0.00049913 0.00049913)
# Probe 740 (0.045 0.00099827 0.00099827)
# Probe 741 (0.045 0.0014974 0.0014974)
# Probe 742 (0.045 0.00199654 0.00199654)
# Probe 743 (0.045 0.00249567 0.00249567)
# Probe 744 (0.045 0.00299481 0.00299481)
# Probe 745 (0.045 0.00349394 0.00349394)
# Probe 746 (0.045 0.00399307 0.00399307)
# Probe 747 (0.045 0.00449221 0.00449221)
# Probe 748 (0.045 0.00499134 0.00499134)
# Probe 749 (0.045 0.00549048 0.00549048)
# Probe 750 (0.045 0.00598961 0.00598961)
# Probe 751 (0.045 0.00648874 0.00648874)
# Probe 752 (0.045 0.00698788 0.00698788)
# Probe 753 (0.045 0.00748701 0.00748701)
# Probe 754 (0.045 0.00798615 0.00798615)
# Probe 755 (0.045 0.00848528 0.00848528)
# Probe 756 (0.045 0 0)
# Probe 757 (0.045 0 0.00070588)
# Probe 758 (0.045 0 0.00141176)
# Probe 759 (0.045 0 0.00211765)
# Probe 760 (0.045 0 0.00282353)
# Probe 761 (0.045 0 0.00352941)
# Probe 762 (0.045 0 0.00423529)
# Probe 763 (0.045 0 0.00494118)
# Probe 764 (0.045 0 0.00564706)
# Probe 765 (0.045 0 0.00635294)
# Probe 766 (0.045 0 0.00705882)
# Probe 767 (0.045 0 0.00776471)
# Probe 768 (0.045 0 0.00847059)
# Probe 769 (0.045 0 0.00917647)
# Probe 770 (0.045 0 0.00988235)
# Probe 771 (0.045 0 0.0105882)
# Probe 772 (0.045 0 0.0112941)
# Probe 773 (0.045 0 0.012)
# Probe 774 (0.045 0 0)
# Probe 775 (0.045 -0.00049913 0.00049913)
# Probe 776 (0.045 -0.00099827 0.00099827)
# Probe 777 (0.045 -0.0014974 0.0014974)
# Probe 778 (0.045 -0.00199654 0.00199654)
# Probe 779 (0.045 -0.00249567 0.00249567)
# Probe 780 (0.045 -0.00299481 0.00299481)
# Probe 781 (0.045 -0.00349394 0.00349394)
# Probe 782 (0.045 -0.00399307 0.00399307)
# Probe 783 (0.045 -0.00449221 0.00449221)
# Probe 784 (0.045 -0.00499134 0.00499134)
# Probe 785 (0.045 -0.00549048 0.00549048)
# Probe 786 (0.045 -0.00598961 0.00598961)
# Probe 787 (0.045 -0.00648874 0.00648874)
# Probe 788 (0.045 -0.00698788 0.00698788)
# Probe 789 (0.045 -0.00748701 0.00748701)
# Probe 790 (0.045 -0.00798615 0.00798615)
# Probe 791 (0.045 -0.00848528 0.00848528)
# Probe 792 (0.045 0 0)
# Probe 793 (0.045 -0.00070588 0)
# Probe 794 (0.045 -0.00141176 0)
# Probe 795 (0.045 -0.00211765 0)
# Probe 796 (0.045 -0.00282353 0)
# Probe 797 (0.045 -0.00352941 0)
# Probe 798 (0.045 -0.00423529 0)
# Probe 799 (0.045 -0.00494118 0)
# Probe 800 (0.045 -0.00564706 0)
# Probe 801 (0.045 -0.00635294 0)
# Probe 802 (0.045 -0.00705882 0)